                         Program Version 5.0.4 -  RELEASE  -
|  1> %pal nprocs 12 end
|  2> %maxcore 3000
|  3> ! TightSCF miniprint nopop
|  4> %casscf
|  5>  nel 6
|  6>  norb 6
|  7>    mult 5,3
|  8>   rel
|  9>   dosoc true
| 10>   PrintLevel 3
| 11>   end
| 12>  maxiter 150
| 13>  CI
| 14>   MaxIter 200
| 15>  end
| 16> end
| 17> %method
| 18>  FrozenCore FC_NONE
| 19> end
| 20> %scf
| 21>  Thresh 1e-12
| 22>  Tcut 1e-14
| 23> end
| 24> %coords
| 25>  Units = angs
| 26>  Charge = 0
| 27>  Mult = 5
| 28>  Coords
| 29>  O(1)       0.00000000       0.00000000      -1.22327000
| 30>   NewGTO
| 31>     S   6
| 32>     1   2.70323826E+04   5.72273352E-04
| 33>     2   4.05238714E+03   4.43532335E-03
| 34>     3   9.22327227E+02   2.30201077E-02
| 35>     4   2.61240710E+02   9.28224907E-02
| 36>     5   8.53546414E+01   2.93785000E-01
| 37>     6   3.10350352E+01   6.74016045E-01
| 38>     S   2
| 39>     1   1.22608607E+01   6.38399370E-01
| 40>     2   4.99870760E+00   3.95345871E-01
| 41>     S   1
| 42>     1   1.17031082E+00   1.00000000E+00
| 43>     S   1
| 44>     1   4.64747410E-01   1.00000000E+00
| 45>     S   1
| 46>     1   1.85045364E-01   1.00000000E+00
| 47>     P   4
| 48>     1   6.32749548E+01   1.20183322E-02
| 49>     2   1.46270494E+01   8.30054218E-02
| 50>     3   4.45012235E+00   3.19917439E-01
| 51>     4   1.52757996E+00   7.07155429E-01
| 52>     P   1
| 53>     1   5.29351179E-01   1.00000000E+00
| 54>     P   1
| 55>     1   1.74784213E-01   1.00000000E+00
| 56>     D   1
| 57>     1   2.31400000E+00   1.00000000E+00
| 58>     D   1
| 59>     1   6.45000000E-01   1.00000000E+00
| 60>     F   1
| 61>     1   1.42800000E+00   1.00000000E+00
| 62>   end
| 63>  Fe(2)       0.00000000       0.00000000       0.37639100
| 64>   NewGTO
| 65>     S   8
| 66>     1   3.00784846E+05   2.41033050E-04
| 67>     2   4.50889706E+04   1.86873825E-03
| 68>     3   1.02625163E+04   9.71551346E-03
| 69>     4   2.90528973E+03   3.94799670E-02
| 70>     5   9.46114871E+02   1.28421628E-01
| 71>     6   3.39878329E+02   3.04578608E-01
| 72>     7   1.31944256E+02   4.34655538E-01
| 73>     8   5.21114941E+01   2.27423824E-01
| 74>     S   4
| 75>     1   3.29488393E+02  -2.47166458E-02
| 76>     2   1.01923327E+02  -1.16695998E-01
| 77>     3   1.62404627E+01   5.52297794E-01
| 78>     4   6.88406758E+00   5.35397520E-01
| 79>     S   2
| 80>     1   1.04706938E+01  -3.77458698E-01
| 81>     2   1.73600396E+00   1.17226229E+00
| 82>     S   1
| 83>     1   7.25772890E-01   1.00000000E+00
| 84>     S   1
| 85>     1   1.15955282E-01   1.00000000E+00
| 86>     S   1
| 87>     1   4.19682277E-02   1.00000000E+00
| 88>     P   6
| 89>     1   1.58539600E+03   2.73956418E-03
| 90>     2   3.75380065E+02   2.21674966E-02
| 91>     3   1.20318165E+02   1.03648403E-01
| 92>     4   4.47887490E+01   2.97032307E-01
| 93>     5   1.78292786E+01   4.77733744E-01
| 94>     6   7.22471538E+00   2.78717499E-01
| 95>     P   3
| 96>     1   2.81432198E+01  -2.02687424E-02
| 97>     2   3.87432414E+00   3.86033815E-01
| 98>     3   1.54107523E+00   6.75382473E-01
| 99>     P   1
|100>     1   5.82856153E-01   1.00000000E+00
|101>     D   4
|102>     1   6.19966750E+01   1.94973340E-02
|103>     2   1.78737326E+01   1.19228681E-01
|104>     3   6.27447829E+00   3.76252748E-01
|105>     4   2.35523372E+00   6.49978431E-01
|106>     D   1
|107>     1   8.54322399E-01   1.00000000E+00
|108>     D   1
|109>     1   2.78692544E-01   1.00000000E+00
|110>     P   1
|111>     1   1.34915000E-01   1.00000000E+00
|112>     D   1
|113>     1   9.10000000E-02   1.00000000E+00
|114>     F   1
|115>     1   1.59800000E+00   1.00000000E+00
|116>   end
|117>  end
|118> end
|119>
|120>
|121>                          ****END OF INPUT****

CARTESIAN COORDINATES (ANGSTROEM)
---------------------------------
  O      0.000000    0.000000   -1.223270
  Fe     0.000000    0.000000    0.376391

ORBITAL ENERGIES
----------------

  NO   OCC          E(Eh)            E(eV)
   0   2.0000    -261.368326     -7112.1937
   1   2.0000     -31.929948      -868.8581
   2   2.0000     -27.421293      -746.1713
   3   2.0000     -27.403480      -745.6866
   4   2.0000     -27.403471      -745.6864
   5   2.0000     -20.533544      -558.7461
   6   2.0000      -4.166382      -113.3730
   7   2.0000      -2.759705       -75.0954
   8   2.0000      -2.739351       -74.5415
   9   2.0000      -2.739343       -74.5413
  10   2.0000      -1.212234       -32.9866
  11   2.0000      -0.551408       -15.0046
  12   2.0000      -0.501117       -13.6361
  13   2.0000      -0.501112       -13.6359
  14   1.6277      -0.425180       -11.5697
  15   1.0251      -0.144301        -3.9266
  16   1.0000      -0.156180        -4.2499
  17   1.0000      -0.155851        -4.2409
  18   0.9997      -0.160536        -4.3684
  19   0.3474       0.075326         2.0497
  20   0.0000       0.184289         5.0148
  21   0.0000       0.184291         5.0148
  22   0.0000       0.190119         5.1734
  23   0.0000       0.242210         6.5909
  24   0.0000       0.263121         7.1599

FINAL SINGLE POINT ENERGY     -1337.246503362108

DIPOLE MOMENT
-------------
                                X             Y             Z
Electronic contribution:      0.00278      -0.00354       2.50177
Nuclear contribution   :      0.00000       0.00000      -1.29695
                        -----------------------------------------
Total Dipole Moment    :      0.00278      -0.00354       1.20482
                        -----------------------------------------
Magnitude (a.u.)       :      1.20483
Magnitude (Debye)      :      3.06243

Rotational constants in cm-1:     0.000000     0.529719     0.529719
Rotational constants in MHz :     0.000000 15880.581558 15880.581558

                             ****ORCA TERMINATED NORMALLY****
TOTAL RUN TIME: 0 days 0 hours 0 minutes 40 seconds 254 msec
